 Gaussian 09, Revision B.01,

 ------------------------------------------
 # B3LYP/6-31+G Opt=loose int=grid=sg1 Test
 ------------------------------------------

 Geometry generated by LasCMD Energy (kcal/mol) = -138.906880 [Gas-Phas
 e]
 ----------------------------------------------------------------------
 Symbolic Z-matrix:
 Charge =  0 Multiplicity = 1

 SCF Done:  E(RB3LYP) =  -398.838615216     A.U. after   13 cycles
 SCF Done:  E(RB3LYP) =  -398.844099134     A.U. after   13 cycles
 SCF Done:  E(RB3LYP) =  -398.845052920     A.U. after   12 cycles
 SCF Done:  E(RB3LYP) =  -398.845464323     A.U. after   12 cycles
 SCF Done:  E(RB3LYP) =  -398.845858617     A.U. after   12 cycles
 SCF Done:  E(RB3LYP) =  -398.845775685     A.U. after   11 cycles
 SCF Done:  E(RB3LYP) =  -398.845861198     A.U. after   11 cycles
 SCF Done:  E(RB3LYP) =  -398.845941870     A.U. after   11 cycles
 Optimization completed.
    -- Stationary point found.
 Normal termination of Gaussian 09 at Wed Aug  8 16:01:58 2012.

 ----------------------------------------------------------------------
 # B3LYP/6-311++G** Opt=tight int=ultrafinegrid Test geom=allcheck gues
 s=read
 ----------------------------------------------------------------------

 e]
 ----------------------------------------------------------------------
 Redundant internal coordinates taken from checkpoint file:
 conf_0.chk
 Charge =  0 Multiplicity = 1

 SCF Done:  E(RB3LYP) =  -399.092827027     A.U. after   13 cycles
 SCF Done:  E(RB3LYP) =  -399.097374646     A.U. after   11 cycles
 SCF Done:  E(RB3LYP) =  -399.097880113     A.U. after    9 cycles
 SCF Done:  E(RB3LYP) =  -399.097880351     A.U. after    8 cycles
 SCF Done:  E(RB3LYP) =  -399.097880405     A.U. after    7 cycles
 SCF Done:  E(RB3LYP) =  -399.097880407     A.U. after    7 cycles
 SCF Done:  E(RB3LYP) =  -399.097880407     A.U. after    7 cycles
 SCF Done:  E(RB3LYP) =  -399.097880407     A.U. after    5 cycles
 Optimization completed.
    -- Stationary point found.
 Normal termination of Gaussian 09 at Wed Aug  8 16:56:54 2012.

 -------------------------------------------------------
 # B3LYP/6-311++G** Freq Test Geom=allcheck Guess=Tcheck
 -------------------------------------------------------

 e]
 ----------------------------------------------------------------------
 Redundant internal coordinates taken from checkpoint file:
 conf_0.chk
 Charge =  0 Multiplicity = 1

 SCF Done:  E(RB3LYP) =  -399.097890499     A.U. after    5 cycles

  Exact polarizability:  65.263   0.874  59.358  -2.381   1.810  48.251
 Approx polarizability:  81.390  -1.808  83.842  -5.676   7.253  70.558

                     1                      2                      3
                     A                      A                      A
 Frequencies --    57.0295               120.5661               186.7303
 Red. masses --     7.0433                 2.7926                 4.3175
 Frc consts  --     0.0135                 0.0239                 0.0887
 IR Inten    --     2.3112                 9.3555                 4.1525

                     4                      5                      6
                     A                      A                      A
 Frequencies --   237.1483               284.7456               339.0430
 Red. masses --     1.2077                 3.3022                 3.8700
 Frc consts  --     0.0400                 0.1577                 0.2621
 IR Inten    --     8.1196                 5.3768                 1.0524

                     7                      8                      9
                     A                      A                      A
 Frequencies --   406.8257               525.8360               566.4631
 Red. masses --     3.7356                 3.1045                 1.1540
 Frc consts  --     0.3643                 0.5058                 0.2182
 IR Inten    --    27.7252                 8.6196               133.3230

                    10                     11                     12
                     A                      A                      A
 Frequencies --   595.3482               654.9269               735.4868
 Red. masses --     1.2782                 3.4198                 3.9522
 Frc consts  --     0.2669                 0.8642                 1.2596
 IR Inten    --   111.0544                17.5823                28.4545

                    13                     14                     15
                     A                      A                      A
 Frequencies --   843.7708               891.5703               942.1231
 Red. masses --     2.2588                 1.8634                 2.2220
 Frc consts  --     0.9475                 0.8727                 1.1620
 IR Inten    --   118.9899                38.5271                58.7313

                    16                     17                     18
                     A                      A                      A
 Frequencies --  1018.7239              1081.9060              1120.6723
 Red. masses --     1.7023                 4.9883                 3.2226
 Frc consts  --     1.0409                 3.4402                 2.3846
 IR Inten    --     2.4989               143.9842               148.4167

                    19                     20                     21
                     A                      A                      A
 Frequencies --  1160.6610              1183.3863              1256.8816
 Red. masses --     2.1317                 1.2911                 1.3302
 Frc consts  --     1.6920                 1.0653                 1.2381
 IR Inten    --    84.1166                54.4802                 7.9423

                    22                     23                     24
                     A                      A                      A
 Frequencies --  1288.6068              1333.3225              1372.2541
 Red. masses --     1.4356                 1.8083                 1.1859
 Frc consts  --     1.4045                 1.8940                 1.3158
 IR Inten    --    10.5952                46.0366                 1.3787

                    25                     26                     27
                     A                      A                      A
 Frequencies --  1423.5645              1432.5390              1512.1105
 Red. masses --     1.4607                 1.2678                 1.0859
 Frc consts  --     1.7441                 1.5330                 1.4629
 IR Inten    --     8.9222                65.8469                 1.5908

                    28                     29                     30
                     A                      A                      A
 Frequencies --  1670.1950              1806.0352              2969.6969
 Red. masses --     1.0902                10.0302                 1.0719
 Frc consts  --     1.7918                19.2758                 5.5696
 IR Inten    --    35.3558               313.7886                52.3081

                    31                     32                     33
                     A                      A                      A
 Frequencies --  3071.9789              3107.1338              3502.3112
 Red. masses --     1.0844                 1.0922                 1.0515
 Frc consts  --     6.0296                 6.2125                 7.5989
 IR Inten    --     7.3019                18.4046                 6.5813

                    34                     35                     36
                     A                      A                      A
 Frequencies --  3584.2966              3727.0958              3750.2157
 Red. masses --     1.0913                 1.0650                 1.0645
 Frc consts  --     8.2603                 8.7166                 8.8210
 IR Inten    --    12.8025                72.9185                68.3447

 - Thermochemistry -
 -------------------
 Temperature   298.150 Kelvin.  Pressure   1.00000 Atm.
 Atom     1 has atomic number  7 and mass  14.00307

 Molecular mass:   105.04259 amu.
 Principal axes and moments of inertia in atomic units:
                           1         2         3
     Eigenvalues --   402.55751 998.822861258.83093
           X            0.99974   0.02244   0.00407
           Y           -0.02231   0.99933  -0.02893
           Z           -0.00472   0.02883   0.99957
 This molecule is an asymmetric top.
 Rotational symmetry number  1.
 Rotational temperatures (Kelvin)      0.21516     0.08672     0.06880
 Rotational constants (GHZ):           4.48319     1.80687     1.43366
 Zero-point vibrational energy     297638.1 (Joules/Mol)
                                   71.13721 (Kcal/Mol)
 Warning -- explicit consideration of  10 degrees of freedom as
           vibrations may cause significant error
 Vibrational temperatures:     82.05   173.47   268.66   341.20   409.68
          (Kelvin)            487.81   585.33   756.56   815.01   856.57
                              942.29  1058.20  1214.00  1282.77  1355.50
                             1465.71  1556.62  1612.40  1669.93  1702.63
                             1808.37  1854.02  1918.35  1974.37  2048.19
                             2061.10  2175.59  2403.04  2598.48  4272.73
                             4419.89  4470.47  5039.04  5157.00  5362.45
                             5395.72

 Zero-point correction=                           0.113364 (Hartree/Particle)
 Thermal correction to Energy=                    0.121049
 Thermal correction to Enthalpy=                  0.121994
 Thermal correction to Gibbs Free Energy=         0.081100
 Sum of electronic and zero-point Energies=           -398.984526
 Sum of electronic and thermal Energies=              -398.976841
 Sum of electronic and thermal Enthalpies=            -398.975897
 Sum of electronic and thermal Free Energies=         -399.016791

                     E (Thermal)             CV                S
                      KCal/Mol        Cal/Mol-Kelvin    Cal/Mol-Kelvin
 Total                   75.960             27.089             86.069
 Electronic               0.000              0.000              0.000
 Translational            0.889              2.981             39.865
 Rotational               0.889              2.981             27.717
 Vibrational             74.182             21.128             18.487
 Vibration     1          0.596              1.975              4.557
 Vibration     2          0.609              1.932              3.091
 Vibration     3          0.632              1.858              2.260
 Vibration     4          0.656              1.784              1.824
 Vibration     5          0.683              1.702              1.505
 Vibration     6          0.719              1.597              1.217
 Vibration     7          0.772              1.455              0.938
 Vibration     8          0.881              1.193              0.597
 Vibration     9          0.922              1.104              0.511
 Vibration    10          0.953              1.042              0.458

 Normal termination of Gaussian 09 at Wed Aug  8 17:04:02 2012.

 ----------------------------------------------------
 # B3LYP/6-311++G** NMR Test Geom=allcheck Guess=read
 ----------------------------------------------------

 e]
 ----------------------------------------------------------------------
 Redundant internal coordinates taken from checkpoint file:
 conf_0.chk
 Charge =  0 Multiplicity = 1

 SCF Done:  E(RB3LYP) =  -399.097890499     A.U. after    1 cycles

 1\1\GINC-EBI-249\SP\RB3LYP\6-311++G(d,p)\C3H7N1O3\ROOT\08-Aug-2012\0\\
 # B3LYP/6-311++G** NMR Test Geom=allcheck Guess=read\\Geometry generat
 ed by LasCMD Energy (kcal/mol) = -138.906880 [Gas-Phase]\\0,1\N,0,0.38
 7414234,-1.1138937051,0.7968908485\C,0,0.0808625321,-0.201412874,-0.29
 95684768\C,0,0.6425077342,1.2003654622,-0.0967346332\O,0,1.0652881932,
 1.6343514916,0.945784409\C,0,-1.4568860852,-0.1401164855,-0.4686288928
 \O,0,-1.97691492,-1.4405802989,-0.6369233995\O,0,0.5806650181,1.936132
 3889,-1.23006611\H,0,1.3122366298,-1.516313943,0.6974551905\H,0,0.3740

 Normal termination of Gaussian 09 at Wed Aug  8 17:05:46 2012.
 Gaussian 09:  EM64L-G09RevB.01 12-Aug-2010

 ----------------------------------------------------------
 # B3LYP/6-311++G** NMR=mixed Test Geom=allcheck Guess=read
 ----------------------------------------------------------

 e]
 ----------------------------------------------------------------------
 Redundant internal coordinates taken from checkpoint file:
 conf_0.chk
 Charge =  0 Multiplicity = 1

 SCF Done:  E(RB3LYP) =  -399.117482156     A.U. after   11 cycles
 Normal termination of Gaussian 09 at Wed Aug  8 17:29:28 2012.

 e]
 ----------------------------------------------------------------------
 Redundant internal coordinates taken from checkpoint file:
 conf_0.chk
 Charge =  0 Multiplicity = 1

                         Standard orientation:
 ---------------------------------------------------------------------
 Center     Atomic      Atomic             Coordinates (Angstroms)
 Number     Number       Type             X           Y           Z
 ---------------------------------------------------------------------
      1          7           0        0.707017    1.541965   -0.273017
      2          6           0        0.232269    0.169805   -0.416580
      3          6           0       -1.225443   -0.012751   -0.012452
      4          8           0       -1.877850    0.786594    0.611523
      5          6           0        1.140341   -0.752645    0.432832
      6          8           0        2.491097   -0.567932    0.070483
      7          8           0       -1.710388   -1.212478   -0.406281
      8          1           0        0.457947    2.106985   -1.076660
      9          1           0        0.280292    1.977842    0.540391
     10          1           0        0.343428   -0.138405   -1.459447
     11          1           0        0.889938   -1.799748    0.260291
     12          1           0        0.981388   -0.527580    1.498588
     13          1           0        2.615381    0.391044    0.005845
     14          1           0       -2.623367   -1.279815   -0.086482
 ---------------------------------------------------------------------

 SCF Done:  E(RB3LYP) =  -399.097890499     A.U. after   10 cycles

  1  N    Isotropic =   229.1109   Anisotropy =    28.8215

  2  C    Isotropic =   122.8042   Anisotropy =    25.5296

  3  C    Isotropic =     1.9914   Anisotropy =   101.8784

  4  O    Isotropic =   -85.3661   Anisotropy =   558.3927

  5  C    Isotropic =   115.4538   Anisotropy =    45.3474

  6  O    Isotropic =   292.7408   Anisotropy =    39.6602

  7  O    Isotropic =   121.7134   Anisotropy =   198.8334

  8  H    Isotropic =    31.0980   Anisotropy =    15.4971

  9  H    Isotropic =    30.6853   Anisotropy =    13.1991

 10  H    Isotropic =    28.5072   Anisotropy =     6.7829

 11  H    Isotropic =    28.1297   Anisotropy =     5.0707

 12  H    Isotropic =    28.7746   Anisotropy =     6.2270

 13  H    Isotropic =    29.2412   Anisotropy =    15.2156

 14  H    Isotropic =    26.1421   Anisotropy =    11.9241

 The electronic state is 1-A.
 Alpha  occ. eigenvalues --  -19.19468 -19.13971 -19.12301 -14.32228 -10.32620
 Alpha  occ. eigenvalues --  -10.23510 -10.23081  -1.13631  -1.04821  -1.03166
 Alpha  occ. eigenvalues --   -0.91550  -0.76537  -0.67430  -0.61576  -0.55151
 Alpha  occ. eigenvalues --   -0.52851  -0.51321  -0.49080  -0.47283  -0.46156
 Alpha  occ. eigenvalues --   -0.43511  -0.42108  -0.39408  -0.35701  -0.34468
 Alpha  occ. eigenvalues --   -0.31000  -0.29186  -0.27475
 Alpha virt. eigenvalues --   -0.02577  -0.02002  -0.00829   0.01016   0.01941
 Alpha virt. eigenvalues --    0.03137   0.04239   0.05001   0.06682   0.06998
 Alpha virt. eigenvalues --    0.08173   0.08857   0.09409   0.10059   0.11204

 Mulliken atomic charges:
              1
     1  N   -0.392118
     2  C   -0.367627
     3  C    0.041806
     4  O   -0.285089
     5  C   -0.224064
     6  O   -0.256925
     7  O   -0.156916
     8  H    0.254390
     9  H    0.245591
    10  H    0.243571
    11  H    0.170765
    12  H    0.166115
    13  H    0.271841
    14  H    0.288659
 Sum of Mulliken atomic charges =   0.00000

 Dipole moment (field-independent basis, Debye):
    X=             -1.9081    Y=              0.3575    Z=             -0.7738  Tot=              2.0898
 Quadrupole moment (field-independent basis, Debye-Ang):
   XX=            -48.0881   YY=            -41.1271   ZZ=            -41.0757
   XY=              7.4919   XZ=              1.6554   YZ=             -2.9671

 Normal termination of Gaussian 09 at Wed Aug  8 17:40:52 2012.
